 Gaussian 09, Revision D.01,
 Gaussian 09:  ES64L-G09RevD.01 24-Apr-2013

 -----------------------------------------------------------------
 #p BMK/6-31+g(2df,p) Opt=(calcfc,modredundant) nosymmetry scf=xqc
 -----------------------------------------------------------------

 -------
 Ala_nat
 -------
 Symbolic Z-matrix:
 Charge =  0 Multiplicity = 1

 SCF Done:  E(RBMK) =  -495.554436817     A.U. after   13 cycles

  Exact polarizability:   0.000   0.000   0.000   0.000   0.000   0.000
 Approx polarizability: 111.908   0.252 101.916  -4.345  14.592  96.462

 SCF Done:  E(RBMK) =  -495.611721338     A.U. after   13 cycles
 SCF Done:  E(RBMK) =  -495.628089956     A.U. after   14 cycles
 SCF Done:  E(RBMK) =  -495.627730783     A.U. after   12 cycles
 SCF Done:  E(RBMK) =  -495.629719735     A.U. after    8 cycles
 SCF Done:  E(RBMK) =  -495.627270741     A.U. after   12 cycles
 SCF Done:  E(RBMK) =  -495.629972524     A.U. after    9 cycles
 SCF Done:  E(RBMK) =  -495.630678386     A.U. after   12 cycles
 SCF Done:  E(RBMK) =  -495.630815764     A.U. after   12 cycles
 SCF Done:  E(RBMK) =  -495.630837026     A.U. after   10 cycles
 SCF Done:  E(RBMK) =  -495.630848371     A.U. after   11 cycles
 SCF Done:  E(RBMK) =  -495.630851667     A.U. after    9 cycles
 SCF Done:  E(RBMK) =  -495.630852134     A.U. after    8 cycles
 SCF Done:  E(RBMK) =  -495.630852425     A.U. after    8 cycles
 SCF Done:  E(RBMK) =  -495.630852657     A.U. after    8 cycles
 SCF Done:  E(RBMK) =  -495.630852786     A.U. after    8 cycles
 SCF Done:  E(RBMK) =  -495.630852808     A.U. after    7 cycles
 Optimization completed.
    -- Stationary point found.

                          Input orientation:
 ---------------------------------------------------------------------
 Center     Atomic      Atomic             Coordinates (Angstroms)
 Number     Number       Type             X           Y           Z
 ---------------------------------------------------------------------
      1          6           0       -0.577360    0.212492    0.008950
      2          1           0       -0.831827    1.112089    0.579015
      3          1           0       -1.237038    0.126632   -0.860912
      4          1           0       -0.736210   -0.671316    0.637936
      5          6           0        0.864774    0.198027   -0.478791
      6          8           0        1.282985   -0.666415   -1.226954
      7          7           0        1.655645    1.198962   -0.019566
      8          1           0        1.318182    1.897709    0.628124
      9          6           0        3.054177    1.280474   -0.366501
     10          1           0        3.477027    0.267796   -0.330385
     11          6           0        3.259697    1.857262   -1.785154
     12          1           0        4.321502    1.866048   -2.061100
     13          1           0        2.716957    1.230527   -2.500673
     14          1           0        2.874601    2.883302   -1.832266
     15          6           0        3.736565    2.177358    0.679385
     16          8           0        3.098395    2.950249    1.369021
     17          7           0        5.083080    2.057496    0.741544
     18          1           0        5.531888    1.391228    0.132424
     19          6           0        5.909420    2.878573    1.604820
     20          1           0        6.647339    2.256724    2.124319
     21          1           0        6.433466    3.658507    1.036191
     22          1           0        5.256737    3.356275    2.340575
 ---------------------------------------------------------------------

 Alpha  occ. eigenvalues --  -19.52702 -19.50466 -14.71712 -14.69616 -10.59836
 Alpha  occ. eigenvalues --  -10.58337 -10.53321 -10.52106 -10.47951 -10.47928
 Alpha  occ. eigenvalues --   -1.14673  -1.12369  -1.01970  -1.00561  -0.85655
 Alpha  occ. eigenvalues --   -0.80049  -0.78199  -0.71497  -0.65900  -0.63858
 Alpha  occ. eigenvalues --   -0.59666  -0.54475  -0.52855  -0.52122  -0.51307
 Alpha  occ. eigenvalues --   -0.50227  -0.48426  -0.46809  -0.45662  -0.44789
 Alpha  occ. eigenvalues --   -0.44605  -0.43265  -0.42282  -0.41827  -0.39352
 Alpha  occ. eigenvalues --   -0.32229  -0.31355  -0.29847  -0.29435
 Alpha virt. eigenvalues --    0.02777   0.04012   0.04949   0.05150   0.05757
 Alpha virt. eigenvalues --    0.06341   0.06933   0.07645   0.08461   0.08817
 Alpha virt. eigenvalues --    0.09489   0.09892   0.10925   0.11584   0.12044

 Mulliken charges:
               1
     1  C   -0.594930
     2  H    0.162823
     3  H    0.202582
     4  H    0.201278
     5  C    0.310115
     6  O   -0.437628
     7  N   -0.200429
     8  H    0.328549
     9  C   -0.117728
    10  H    0.146019
    11  C   -0.614515
    12  H    0.156847
    13  H    0.207935
    14  H    0.175448
    15  C    0.341835
    16  O   -0.438712
    17  N   -0.177952
    18  H    0.300329
    19  C   -0.502706
    20  H    0.167240
    21  H    0.168337
    22  H    0.215263
 Sum of Mulliken charges =   0.00000

 Dipole moment (field-independent basis, Debye):
    X=              2.6844    Y=              1.2235    Z=              0.7104  Tot=              3.0344
 Quadrupole moment (field-independent basis, Debye-Ang):
   XX=            -29.7641   YY=            -67.7797   ZZ=            -64.8371
   XY=              6.0590   XZ=              0.6940   YZ=             -6.3976

 Normal termination of Gaussian 09 at Wed Apr 13 01:54:04 2022.
